
# Re-equilibrium

thermo 	500
thermo_style custom step c_myCTtemp c_myWPtemp press etotal fmax fnorm

run 0 # 20 ps
No /omp style for force computation currently active
WARNING: One or more atoms are time integrated more than once (../modify_cuda.cpp:225)
Memory usage per processor = 43.8351 Mbytes
Step myCTtemp myWPtemp Press TotEng Fmax Fnorm 
       0    314.30322    357.14702   -3409.7571   -781737.34    7.7823716    707.91453 
WARNING: # CUDA: You asked for a Verlet integration using Cuda, but several fixes have not yet been ported to Cuda.
This can cause a severe speed penalty due to frequent data synchronization between host and GPU. (../verlet_cuda.cpp:629)
Loop time of 0.110882 on 1 procs for 0 steps with 113765 atoms

Pair  time (%) = 0 (0)
Neigh time (%) = 0 (0)
Comm  time (%) = 0 (0)
Outpt time (%) = 0 (0)
Other time (%) = 0.110882 (100)

Nlocal:    113765 ave 113765 max 113765 min
Histogram: 1 0 0 0 0 0 0 0 0 0
Nghost:    73975 ave 73975 max 73975 min
Histogram: 1 0 0 0 0 0 0 0 0 0
Neighs:    0 ave 0 max 0 min
Histogram: 1 0 0 0 0 0 0 0 0 0
FullNghs:  8.01448e+06 ave 8.01448e+06 max 8.01448e+06 min
Histogram: 1 0 0 0 0 0 0 0 0 0

Total # of neighbors = 8014484
Ave neighs/atom = 70.4477
Neighbor list builds = 0
Dangerous builds = 0

print "Complete re-equilibrium"
Complete re-equilibrium

# start cutting

log ${respath}/log_files/cut_sic_cut.log
log 3.0x100_m_s-1_SiC_EA/log_files/cut_sic_cut.log
