LAMMPS (8 Aug 2014)
USER-CUDA mode is enabled (../lammps.cpp:449)
log rerun.log
