ITEM: TIMESTEP
0
ITEM: NUMBER OF NODES
8
ITEM: BOX BOUNDS
-0.0432303 431.832
-0.0205235 132.148
0 30.5669
ITEM: NODES
1 1 -0.0432303 -0.0205235 0
2 1 431.832 -0.0205235 0
3 1 431.832 132.148 0
4 1 -0.0432303 132.148 0
5 1 -0.0432303 -0.0205235 30.5669
6 1 431.832 -0.0205235 30.5669
7 1 431.832 132.148 30.5669
8 1 -0.0432303 132.148 30.5669
ITEM: TIMESTEP
0
ITEM: NUMBER OF CUBES
1
ITEM: CUBES
1 1 1 2 3 4 5 6 7 8
ITEM: TIMESTEP
0
ITEM: NUMBER OF NODES
8
ITEM: BOX BOUNDS
-0.0432303 431.832
-0.0205235 132.148
0 30.5669
ITEM: NODES
1 1 -0.0432303 -0.0205235 0
2 1 431.832 -0.0205235 0
3 1 431.832 132.148 0
4 1 -0.0432303 132.148 0
5 1 -0.0432303 -0.0205235 30.5669
6 1 431.832 -0.0205235 30.5669
7 1 431.832 132.148 30.5669
8 1 -0.0432303 132.148 30.5669
ITEM: TIMESTEP
0
ITEM: NUMBER OF CUBES
1
ITEM: CUBES
1 1 1 2 3 4 5 6 7 8
ITEM: TIMESTEP
100
ITEM: NUMBER OF NODES
8
ITEM: BOX BOUNDS
-0.0432303 432.71
-0.0205235 132.201
0 30.5669
ITEM: NODES
1 1 -0.0432303 -0.0205235 0
2 1 432.71 -0.0205235 0
3 1 432.71 132.201 0
4 1 -0.0432303 132.201 0
5 1 -0.0432303 -0.0205235 30.5669
6 1 432.71 -0.0205235 30.5669
7 1 432.71 132.201 30.5669
8 1 -0.0432303 132.201 30.5669
ITEM: TIMESTEP
100
ITEM: NUMBER OF CUBES
1
ITEM: CUBES
1 1 1 2 3 4 5 6 7 8
ITEM: TIMESTEP
200
ITEM: NUMBER OF NODES
8
ITEM: BOX BOUNDS
-0.0432303 432.76
-0.0205235 132.331
0 30.5669
ITEM: NODES
1 1 -0.0432303 -0.0205235 0
2 1 432.76 -0.0205235 0
3 1 432.76 132.331 0
4 1 -0.0432303 132.331 0
5 1 -0.0432303 -0.0205235 30.5669
6 1 432.76 -0.0205235 30.5669
7 1 432.76 132.331 30.5669
8 1 -0.0432303 132.331 30.5669
ITEM: TIMESTEP
200
ITEM: NUMBER OF CUBES
1
ITEM: CUBES
1 1 1 2 3 4 5 6 7 8
ITEM: TIMESTEP
300
ITEM: NUMBER OF NODES
8
ITEM: BOX BOUNDS
-0.0432303 432.788
-0.0205235 132.338
0 30.5669
ITEM: NODES
1 1 -0.0432303 -0.0205235 0
2 1 432.788 -0.0205235 0
3 1 432.788 132.338 0
4 1 -0.0432303 132.338 0
5 1 -0.0432303 -0.0205235 30.5669
6 1 432.788 -0.0205235 30.5669
7 1 432.788 132.338 30.5669
8 1 -0.0432303 132.338 30.5669
ITEM: TIMESTEP
300
ITEM: NUMBER OF CUBES
1
ITEM: CUBES
1 1 1 2 3 4 5 6 7 8
ITEM: TIMESTEP
400
ITEM: NUMBER OF NODES
8
ITEM: BOX BOUNDS
-0.0432303 432.583
-0.0205235 132.39
0 30.5669
ITEM: NODES
1 1 -0.0432303 -0.0205235 0
2 1 432.583 -0.0205235 0
3 1 432.583 132.39 0
4 1 -0.0432303 132.39 0
5 1 -0.0432303 -0.0205235 30.5669
6 1 432.583 -0.0205235 30.5669
7 1 432.583 132.39 30.5669
8 1 -0.0432303 132.39 30.5669
ITEM: TIMESTEP
400
ITEM: NUMBER OF CUBES
1
ITEM: CUBES
1 1 1 2 3 4 5 6 7 8
ITEM: TIMESTEP
500
ITEM: NUMBER OF NODES
8
ITEM: BOX BOUNDS
-0.0432303 432.706
-0.0205235 132.566
0 30.5669
ITEM: NODES
1 1 -0.0432303 -0.0205235 0
2 1 432.706 -0.0205235 0
3 1 432.706 132.566 0
4 1 -0.0432303 132.566 0
5 1 -0.0432303 -0.0205235 30.5669
6 1 432.706 -0.0205235 30.5669
7 1 432.706 132.566 30.5669
8 1 -0.0432303 132.566 30.5669
ITEM: TIMESTEP
500
ITEM: NUMBER OF CUBES
1
ITEM: CUBES
1 1 1 2 3 4 5 6 7 8
ITEM: TIMESTEP
600
ITEM: NUMBER OF NODES
8
ITEM: BOX BOUNDS
-0.0432303 433.007
-0.0205235 132.592
0 30.5669
ITEM: NODES
1 1 -0.0432303 -0.0205235 0
2 1 433.007 -0.0205235 0
3 1 433.007 132.592 0
4 1 -0.0432303 132.592 0
5 1 -0.0432303 -0.0205235 30.5669
6 1 433.007 -0.0205235 30.5669
7 1 433.007 132.592 30.5669
8 1 -0.0432303 132.592 30.5669
ITEM: TIMESTEP
600
ITEM: NUMBER OF CUBES
1
ITEM: CUBES
1 1 1 2 3 4 5 6 7 8
ITEM: TIMESTEP
700
ITEM: NUMBER OF NODES
8
ITEM: BOX BOUNDS
-0.0432303 432.893
-0.0205235 132.559
0 30.5669
ITEM: NODES
1 1 -0.0432303 -0.0205235 0
2 1 432.893 -0.0205235 0
3 1 432.893 132.559 0
4 1 -0.0432303 132.559 0
5 1 -0.0432303 -0.0205235 30.5669
6 1 432.893 -0.0205235 30.5669
7 1 432.893 132.559 30.5669
8 1 -0.0432303 132.559 30.5669
ITEM: TIMESTEP
700
ITEM: NUMBER OF CUBES
1
ITEM: CUBES
1 1 1 2 3 4 5 6 7 8
ITEM: TIMESTEP
800
ITEM: NUMBER OF NODES
8
ITEM: BOX BOUNDS
-0.0432303 432.963
-0.0205235 132.471
0 30.5669
ITEM: NODES
1 1 -0.0432303 -0.0205235 0
2 1 432.963 -0.0205235 0
3 1 432.963 132.471 0
4 1 -0.0432303 132.471 0
5 1 -0.0432303 -0.0205235 30.5669
6 1 432.963 -0.0205235 30.5669
7 1 432.963 132.471 30.5669
8 1 -0.0432303 132.471 30.5669
ITEM: TIMESTEP
800
ITEM: NUMBER OF CUBES
1
ITEM: CUBES
1 1 1 2 3 4 5 6 7 8
ITEM: TIMESTEP
900
ITEM: NUMBER OF NODES
8
ITEM: BOX BOUNDS
-0.0432303 432.909
-0.0205235 132.475
0 30.5669
ITEM: NODES
1 1 -0.0432303 -0.0205235 0
2 1 432.909 -0.0205235 0
3 1 432.909 132.475 0
4 1 -0.0432303 132.475 0
5 1 -0.0432303 -0.0205235 30.5669
6 1 432.909 -0.0205235 30.5669
7 1 432.909 132.475 30.5669
8 1 -0.0432303 132.475 30.5669
ITEM: TIMESTEP
900
ITEM: NUMBER OF CUBES
1
ITEM: CUBES
1 1 1 2 3 4 5 6 7 8
ITEM: TIMESTEP
1000
ITEM: NUMBER OF NODES
8
ITEM: BOX BOUNDS
-0.0432303 433.098
-0.0205235 132.427
0 30.5669
ITEM: NODES
1 1 -0.0432303 -0.0205235 0
2 1 433.098 -0.0205235 0
3 1 433.098 132.427 0
4 1 -0.0432303 132.427 0
5 1 -0.0432303 -0.0205235 30.5669
6 1 433.098 -0.0205235 30.5669
7 1 433.098 132.427 30.5669
8 1 -0.0432303 132.427 30.5669
ITEM: TIMESTEP
1000
ITEM: NUMBER OF CUBES
1
ITEM: CUBES
1 1 1 2 3 4 5 6 7 8
ITEM: TIMESTEP
1100
ITEM: NUMBER OF NODES
8
ITEM: BOX BOUNDS
-0.0432303 433.255
-0.0205235 132.432
0 30.5669
ITEM: NODES
1 1 -0.0432303 -0.0205235 0
2 1 433.255 -0.0205235 0
3 1 433.255 132.432 0
4 1 -0.0432303 132.432 0
5 1 -0.0432303 -0.0205235 30.5669
6 1 433.255 -0.0205235 30.5669
7 1 433.255 132.432 30.5669
8 1 -0.0432303 132.432 30.5669
ITEM: TIMESTEP
1100
ITEM: NUMBER OF CUBES
1
ITEM: CUBES
1 1 1 2 3 4 5 6 7 8
ITEM: TIMESTEP
1200
ITEM: NUMBER OF NODES
8
ITEM: BOX BOUNDS
-0.0432303 433.134
-0.0205235 132.251
0 30.5669
ITEM: NODES
1 1 -0.0432303 -0.0205235 0
2 1 433.134 -0.0205235 0
3 1 433.134 132.251 0
4 1 -0.0432303 132.251 0
5 1 -0.0432303 -0.0205235 30.5669
6 1 433.134 -0.0205235 30.5669
7 1 433.134 132.251 30.5669
8 1 -0.0432303 132.251 30.5669
ITEM: TIMESTEP
1200
ITEM: NUMBER OF CUBES
1
ITEM: CUBES
1 1 1 2 3 4 5 6 7 8
ITEM: TIMESTEP
1300
ITEM: NUMBER OF NODES
8
ITEM: BOX BOUNDS
-0.0432303 433.158
-0.0205235 132.214
0 30.5669
ITEM: NODES
1 1 -0.0432303 -0.0205235 0
2 1 433.158 -0.0205235 0
3 1 433.158 132.214 0
4 1 -0.0432303 132.214 0
5 1 -0.0432303 -0.0205235 30.5669
6 1 433.158 -0.0205235 30.5669
7 1 433.158 132.214 30.5669
8 1 -0.0432303 132.214 30.5669
ITEM: TIMESTEP
1300
ITEM: NUMBER OF CUBES
1
ITEM: CUBES
1 1 1 2 3 4 5 6 7 8
ITEM: TIMESTEP
1400
ITEM: NUMBER OF NODES
8
ITEM: BOX BOUNDS
-0.0432303 433.27
-0.0205235 132.148
0 30.5669
ITEM: NODES
1 1 -0.0432303 -0.0205235 0
2 1 433.27 -0.0205235 0
3 1 433.27 132.148 0
4 1 -0.0432303 132.148 0
5 1 -0.0432303 -0.0205235 30.5669
6 1 433.27 -0.0205235 30.5669
7 1 433.27 132.148 30.5669
8 1 -0.0432303 132.148 30.5669
ITEM: TIMESTEP
1400
ITEM: NUMBER OF CUBES
1
ITEM: CUBES
1 1 1 2 3 4 5 6 7 8
ITEM: TIMESTEP
1500
ITEM: NUMBER OF NODES
8
ITEM: BOX BOUNDS
-0.0432303 433.381
-0.0205235 132.196
0 30.5669
ITEM: NODES
1 1 -0.0432303 -0.0205235 0
2 1 433.381 -0.0205235 0
3 1 433.381 132.196 0
4 1 -0.0432303 132.196 0
5 1 -0.0432303 -0.0205235 30.5669
6 1 433.381 -0.0205235 30.5669
7 1 433.381 132.196 30.5669
8 1 -0.0432303 132.196 30.5669
ITEM: TIMESTEP
1500
ITEM: NUMBER OF CUBES
1
ITEM: CUBES
1 1 1 2 3 4 5 6 7 8
ITEM: TIMESTEP
1600
ITEM: NUMBER OF NODES
8
ITEM: BOX BOUNDS
-0.0432303 433.409
-0.0205235 132.158
0 30.5669
ITEM: NODES
1 1 -0.0432303 -0.0205235 0
2 1 433.409 -0.0205235 0
3 1 433.409 132.158 0
4 1 -0.0432303 132.158 0
5 1 -0.0432303 -0.0205235 30.5669
6 1 433.409 -0.0205235 30.5669
7 1 433.409 132.158 30.5669
8 1 -0.0432303 132.158 30.5669
ITEM: TIMESTEP
1600
ITEM: NUMBER OF CUBES
1
ITEM: CUBES
1 1 1 2 3 4 5 6 7 8
ITEM: TIMESTEP
1700
ITEM: NUMBER OF NODES
8
ITEM: BOX BOUNDS
-0.0432303 433.48
-0.0205235 132.148
0 30.5669
ITEM: NODES
1 1 -0.0432303 -0.0205235 0
2 1 433.48 -0.0205235 0
3 1 433.48 132.148 0
4 1 -0.0432303 132.148 0
5 1 -0.0432303 -0.0205235 30.5669
6 1 433.48 -0.0205235 30.5669
7 1 433.48 132.148 30.5669
8 1 -0.0432303 132.148 30.5669
ITEM: TIMESTEP
1700
ITEM: NUMBER OF CUBES
1
ITEM: CUBES
1 1 1 2 3 4 5 6 7 8
ITEM: TIMESTEP
1800
ITEM: NUMBER OF NODES
8
ITEM: BOX BOUNDS
-0.0432303 433.516
-0.0205235 132.148
0 30.5669
ITEM: NODES
1 1 -0.0432303 -0.0205235 0
2 1 433.516 -0.0205235 0
3 1 433.516 132.148 0
4 1 -0.0432303 132.148 0
5 1 -0.0432303 -0.0205235 30.5669
6 1 433.516 -0.0205235 30.5669
7 1 433.516 132.148 30.5669
8 1 -0.0432303 132.148 30.5669
ITEM: TIMESTEP
1800
ITEM: NUMBER OF CUBES
1
ITEM: CUBES
1 1 1 2 3 4 5 6 7 8
ITEM: TIMESTEP
1900
ITEM: NUMBER OF NODES
8
ITEM: BOX BOUNDS
-0.0432303 433.501
-0.0205235 132.148
0 30.5669
ITEM: NODES
1 1 -0.0432303 -0.0205235 0
2 1 433.501 -0.0205235 0
3 1 433.501 132.148 0
4 1 -0.0432303 132.148 0
5 1 -0.0432303 -0.0205235 30.5669
6 1 433.501 -0.0205235 30.5669
7 1 433.501 132.148 30.5669
8 1 -0.0432303 132.148 30.5669
ITEM: TIMESTEP
1900
ITEM: NUMBER OF CUBES
1
ITEM: CUBES
1 1 1 2 3 4 5 6 7 8
ITEM: TIMESTEP
2000
ITEM: NUMBER OF NODES
8
ITEM: BOX BOUNDS
-0.0432303 433.354
-0.0205235 132.148
0 30.5669
ITEM: NODES
1 1 -0.0432303 -0.0205235 0
2 1 433.354 -0.0205235 0
3 1 433.354 132.148 0
4 1 -0.0432303 132.148 0
5 1 -0.0432303 -0.0205235 30.5669
6 1 433.354 -0.0205235 30.5669
7 1 433.354 132.148 30.5669
8 1 -0.0432303 132.148 30.5669
ITEM: TIMESTEP
2000
ITEM: NUMBER OF CUBES
1
ITEM: CUBES
1 1 1 2 3 4 5 6 7 8
ITEM: TIMESTEP
2100
ITEM: NUMBER OF NODES
8
ITEM: BOX BOUNDS
-0.0432303 433.351
-0.0205235 132.148
0 30.5669
ITEM: NODES
1 1 -0.0432303 -0.0205235 0
2 1 433.351 -0.0205235 0
3 1 433.351 132.148 0
4 1 -0.0432303 132.148 0
5 1 -0.0432303 -0.0205235 30.5669
6 1 433.351 -0.0205235 30.5669
7 1 433.351 132.148 30.5669
8 1 -0.0432303 132.148 30.5669
ITEM: TIMESTEP
2100
ITEM: NUMBER OF CUBES
1
ITEM: CUBES
1 1 1 2 3 4 5 6 7 8
ITEM: TIMESTEP
2200
ITEM: NUMBER OF NODES
8
ITEM: BOX BOUNDS
-0.0432303 433.308
-0.0205235 132.148
0 30.5669
ITEM: NODES
1 1 -0.0432303 -0.0205235 0
2 1 433.308 -0.0205235 0
3 1 433.308 132.148 0
4 1 -0.0432303 132.148 0
5 1 -0.0432303 -0.0205235 30.5669
6 1 433.308 -0.0205235 30.5669
7 1 433.308 132.148 30.5669
8 1 -0.0432303 132.148 30.5669
ITEM: TIMESTEP
2200
ITEM: NUMBER OF CUBES
1
ITEM: CUBES
1 1 1 2 3 4 5 6 7 8
ITEM: TIMESTEP
2300
ITEM: NUMBER OF NODES
8
ITEM: BOX BOUNDS
-0.0432303 433.304
-0.0205235 132.148
0 30.5669
ITEM: NODES
1 1 -0.0432303 -0.0205235 0
2 1 433.304 -0.0205235 0
3 1 433.304 132.148 0
4 1 -0.0432303 132.148 0
5 1 -0.0432303 -0.0205235 30.5669
6 1 433.304 -0.0205235 30.5669
7 1 433.304 132.148 30.5669
8 1 -0.0432303 132.148 30.5669
ITEM: TIMESTEP
2300
ITEM: NUMBER OF CUBES
1
ITEM: CUBES
1 1 1 2 3 4 5 6 7 8
ITEM: TIMESTEP
2400
ITEM: NUMBER OF NODES
8
ITEM: BOX BOUNDS
-0.0432303 433.278
-0.0205235 132.148
0 30.5669
ITEM: NODES
1 1 -0.0432303 -0.0205235 0
2 1 433.278 -0.0205235 0
3 1 433.278 132.148 0
4 1 -0.0432303 132.148 0
5 1 -0.0432303 -0.0205235 30.5669
6 1 433.278 -0.0205235 30.5669
7 1 433.278 132.148 30.5669
8 1 -0.0432303 132.148 30.5669
ITEM: TIMESTEP
2400
ITEM: NUMBER OF CUBES
1
ITEM: CUBES
1 1 1 2 3 4 5 6 7 8
ITEM: TIMESTEP
2500
ITEM: NUMBER OF NODES
8
ITEM: BOX BOUNDS
-0.0432303 433.164
-0.0205235 132.148
0 30.5669
ITEM: NODES
1 1 -0.0432303 -0.0205235 0
2 1 433.164 -0.0205235 0
3 1 433.164 132.148 0
4 1 -0.0432303 132.148 0
5 1 -0.0432303 -0.0205235 30.5669
6 1 433.164 -0.0205235 30.5669
7 1 433.164 132.148 30.5669
8 1 -0.0432303 132.148 30.5669
ITEM: TIMESTEP
2500
ITEM: NUMBER OF CUBES
1
ITEM: CUBES
1 1 1 2 3 4 5 6 7 8
ITEM: TIMESTEP
2600
ITEM: NUMBER OF NODES
8
ITEM: BOX BOUNDS
-0.0432303 433.123
-0.0205235 132.148
0 30.5669
ITEM: NODES
1 1 -0.0432303 -0.0205235 0
2 1 433.123 -0.0205235 0
3 1 433.123 132.148 0
4 1 -0.0432303 132.148 0
5 1 -0.0432303 -0.0205235 30.5669
6 1 433.123 -0.0205235 30.5669
7 1 433.123 132.148 30.5669
8 1 -0.0432303 132.148 30.5669
ITEM: TIMESTEP
2600
ITEM: NUMBER OF CUBES
1
ITEM: CUBES
1 1 1 2 3 4 5 6 7 8
ITEM: TIMESTEP
2700
ITEM: NUMBER OF NODES
8
ITEM: BOX BOUNDS
-0.0432303 433.08
-0.0205235 132.148
0 30.5669
ITEM: NODES
1 1 -0.0432303 -0.0205235 0
2 1 433.08 -0.0205235 0
3 1 433.08 132.148 0
4 1 -0.0432303 132.148 0
5 1 -0.0432303 -0.0205235 30.5669
6 1 433.08 -0.0205235 30.5669
7 1 433.08 132.148 30.5669
8 1 -0.0432303 132.148 30.5669
ITEM: TIMESTEP
2700
ITEM: NUMBER OF CUBES
1
ITEM: CUBES
1 1 1 2 3 4 5 6 7 8
ITEM: TIMESTEP
2800
ITEM: NUMBER OF NODES
8
ITEM: BOX BOUNDS
-0.0432303 433.014
-0.0205235 132.148
0 30.5669
ITEM: NODES
1 1 -0.0432303 -0.0205235 0
2 1 433.014 -0.0205235 0
3 1 433.014 132.148 0
4 1 -0.0432303 132.148 0
5 1 -0.0432303 -0.0205235 30.5669
6 1 433.014 -0.0205235 30.5669
7 1 433.014 132.148 30.5669
8 1 -0.0432303 132.148 30.5669
ITEM: TIMESTEP
2800
ITEM: NUMBER OF CUBES
1
ITEM: CUBES
1 1 1 2 3 4 5 6 7 8
ITEM: TIMESTEP
2900
ITEM: NUMBER OF NODES
8
ITEM: BOX BOUNDS
-0.0432303 433.023
-0.0205235 132.148
0 30.5669
ITEM: NODES
1 1 -0.0432303 -0.0205235 0
2 1 433.023 -0.0205235 0
3 1 433.023 132.148 0
4 1 -0.0432303 132.148 0
5 1 -0.0432303 -0.0205235 30.5669
6 1 433.023 -0.0205235 30.5669
7 1 433.023 132.148 30.5669
8 1 -0.0432303 132.148 30.5669
ITEM: TIMESTEP
2900
ITEM: NUMBER OF CUBES
1
ITEM: CUBES
1 1 1 2 3 4 5 6 7 8
ITEM: TIMESTEP
3000
ITEM: NUMBER OF NODES
8
ITEM: BOX BOUNDS
-0.0432303 433.024
-0.0205235 132.148
0 30.5669
ITEM: NODES
1 1 -0.0432303 -0.0205235 0
2 1 433.024 -0.0205235 0
3 1 433.024 132.148 0
4 1 -0.0432303 132.148 0
5 1 -0.0432303 -0.0205235 30.5669
6 1 433.024 -0.0205235 30.5669
7 1 433.024 132.148 30.5669
8 1 -0.0432303 132.148 30.5669
ITEM: TIMESTEP
3000
ITEM: NUMBER OF CUBES
1
ITEM: CUBES
1 1 1 2 3 4 5 6 7 8
ITEM: TIMESTEP
3100
ITEM: NUMBER OF NODES
8
ITEM: BOX BOUNDS
-0.0432303 432.978
-0.0205235 132.148
0 30.5669
ITEM: NODES
1 1 -0.0432303 -0.0205235 0
2 1 432.978 -0.0205235 0
3 1 432.978 132.148 0
4 1 -0.0432303 132.148 0
5 1 -0.0432303 -0.0205235 30.5669
6 1 432.978 -0.0205235 30.5669
7 1 432.978 132.148 30.5669
8 1 -0.0432303 132.148 30.5669
ITEM: TIMESTEP
3100
ITEM: NUMBER OF CUBES
1
ITEM: CUBES
1 1 1 2 3 4 5 6 7 8
ITEM: TIMESTEP
3200
ITEM: NUMBER OF NODES
8
ITEM: BOX BOUNDS
-0.0432303 432.836
-0.0205235 132.148
0 30.5669
ITEM: NODES
1 1 -0.0432303 -0.0205235 0
2 1 432.836 -0.0205235 0
3 1 432.836 132.148 0
4 1 -0.0432303 132.148 0
5 1 -0.0432303 -0.0205235 30.5669
6 1 432.836 -0.0205235 30.5669
7 1 432.836 132.148 30.5669
8 1 -0.0432303 132.148 30.5669
ITEM: TIMESTEP
3200
ITEM: NUMBER OF CUBES
1
ITEM: CUBES
1 1 1 2 3 4 5 6 7 8
ITEM: TIMESTEP
3300
ITEM: NUMBER OF NODES
8
ITEM: BOX BOUNDS
-0.0432303 432.93
-0.0205235 132.148
0 30.5669
ITEM: NODES
1 1 -0.0432303 -0.0205235 0
2 1 432.93 -0.0205235 0
3 1 432.93 132.148 0
4 1 -0.0432303 132.148 0
5 1 -0.0432303 -0.0205235 30.5669
6 1 432.93 -0.0205235 30.5669
7 1 432.93 132.148 30.5669
8 1 -0.0432303 132.148 30.5669
ITEM: TIMESTEP
3300
ITEM: NUMBER OF CUBES
1
ITEM: CUBES
1 1 1 2 3 4 5 6 7 8
ITEM: TIMESTEP
3400
ITEM: NUMBER OF NODES
8
ITEM: BOX BOUNDS
-0.0432303 432.98
-0.0205235 132.148
0 30.5669
ITEM: NODES
1 1 -0.0432303 -0.0205235 0
2 1 432.98 -0.0205235 0
3 1 432.98 132.148 0
4 1 -0.0432303 132.148 0
5 1 -0.0432303 -0.0205235 30.5669
6 1 432.98 -0.0205235 30.5669
7 1 432.98 132.148 30.5669
8 1 -0.0432303 132.148 30.5669
ITEM: TIMESTEP
3400
ITEM: NUMBER OF CUBES
1
ITEM: CUBES
1 1 1 2 3 4 5 6 7 8
ITEM: TIMESTEP
3500
ITEM: NUMBER OF NODES
8
ITEM: BOX BOUNDS
-0.0432303 432.945
-0.0205235 132.148
0 30.5669
ITEM: NODES
1 1 -0.0432303 -0.0205235 0
2 1 432.945 -0.0205235 0
3 1 432.945 132.148 0
4 1 -0.0432303 132.148 0
5 1 -0.0432303 -0.0205235 30.5669
6 1 432.945 -0.0205235 30.5669
7 1 432.945 132.148 30.5669
8 1 -0.0432303 132.148 30.5669
ITEM: TIMESTEP
3500
ITEM: NUMBER OF CUBES
1
ITEM: CUBES
1 1 1 2 3 4 5 6 7 8
ITEM: TIMESTEP
3600
ITEM: NUMBER OF NODES
8
ITEM: BOX BOUNDS
-0.0432303 433.07
-0.0205235 132.148
0 30.5669
ITEM: NODES
1 1 -0.0432303 -0.0205235 0
2 1 433.07 -0.0205235 0
3 1 433.07 132.148 0
4 1 -0.0432303 132.148 0
5 1 -0.0432303 -0.0205235 30.5669
6 1 433.07 -0.0205235 30.5669
7 1 433.07 132.148 30.5669
8 1 -0.0432303 132.148 30.5669
ITEM: TIMESTEP
3600
ITEM: NUMBER OF CUBES
1
ITEM: CUBES
1 1 1 2 3 4 5 6 7 8
ITEM: TIMESTEP
3700
ITEM: NUMBER OF NODES
8
ITEM: BOX BOUNDS
-0.0432303 432.942
-0.0205235 132.148
0 30.5669
ITEM: NODES
1 1 -0.0432303 -0.0205235 0
2 1 432.942 -0.0205235 0
3 1 432.942 132.148 0
4 1 -0.0432303 132.148 0
5 1 -0.0432303 -0.0205235 30.5669
6 1 432.942 -0.0205235 30.5669
7 1 432.942 132.148 30.5669
8 1 -0.0432303 132.148 30.5669
ITEM: TIMESTEP
3700
ITEM: NUMBER OF CUBES
1
ITEM: CUBES
1 1 1 2 3 4 5 6 7 8
ITEM: TIMESTEP
3800
ITEM: NUMBER OF NODES
8
ITEM: BOX BOUNDS
-0.0432303 432.865
-0.0205235 132.148
0 30.5669
ITEM: NODES
1 1 -0.0432303 -0.0205235 0
2 1 432.865 -0.0205235 0
3 1 432.865 132.148 0
4 1 -0.0432303 132.148 0
5 1 -0.0432303 -0.0205235 30.5669
6 1 432.865 -0.0205235 30.5669
7 1 432.865 132.148 30.5669
8 1 -0.0432303 132.148 30.5669
ITEM: TIMESTEP
3800
ITEM: NUMBER OF CUBES
1
ITEM: CUBES
1 1 1 2 3 4 5 6 7 8
ITEM: TIMESTEP
3900
ITEM: NUMBER OF NODES
8
ITEM: BOX BOUNDS
-0.0432303 432.785
-0.0205235 132.148
0 30.5669
ITEM: NODES
1 1 -0.0432303 -0.0205235 0
2 1 432.785 -0.0205235 0
3 1 432.785 132.148 0
4 1 -0.0432303 132.148 0
5 1 -0.0432303 -0.0205235 30.5669
6 1 432.785 -0.0205235 30.5669
7 1 432.785 132.148 30.5669
8 1 -0.0432303 132.148 30.5669
ITEM: TIMESTEP
3900
ITEM: NUMBER OF CUBES
1
ITEM: CUBES
1 1 1 2 3 4 5 6 7 8
ITEM: TIMESTEP
4000
ITEM: NUMBER OF NODES
8
ITEM: BOX BOUNDS
-0.0432303 432.793
-0.0205235 132.148
0 30.5669
ITEM: NODES
1 1 -0.0432303 -0.0205235 0
2 1 432.793 -0.0205235 0
3 1 432.793 132.148 0
4 1 -0.0432303 132.148 0
5 1 -0.0432303 -0.0205235 30.5669
6 1 432.793 -0.0205235 30.5669
7 1 432.793 132.148 30.5669
8 1 -0.0432303 132.148 30.5669
ITEM: TIMESTEP
4000
ITEM: NUMBER OF CUBES
1
ITEM: CUBES
1 1 1 2 3 4 5 6 7 8
ITEM: TIMESTEP
4100
ITEM: NUMBER OF NODES
8
ITEM: BOX BOUNDS
-0.0432303 432.74
-0.0205235 132.148
0 30.5669
ITEM: NODES
1 1 -0.0432303 -0.0205235 0
2 1 432.74 -0.0205235 0
3 1 432.74 132.148 0
4 1 -0.0432303 132.148 0
5 1 -0.0432303 -0.0205235 30.5669
6 1 432.74 -0.0205235 30.5669
7 1 432.74 132.148 30.5669
8 1 -0.0432303 132.148 30.5669
ITEM: TIMESTEP
4100
ITEM: NUMBER OF CUBES
1
ITEM: CUBES
1 1 1 2 3 4 5 6 7 8
ITEM: TIMESTEP
4200
ITEM: NUMBER OF NODES
8
ITEM: BOX BOUNDS
-0.0432303 432.721
-0.0205235 132.148
0 30.5669
ITEM: NODES
1 1 -0.0432303 -0.0205235 0
2 1 432.721 -0.0205235 0
3 1 432.721 132.148 0
4 1 -0.0432303 132.148 0
5 1 -0.0432303 -0.0205235 30.5669
6 1 432.721 -0.0205235 30.5669
7 1 432.721 132.148 30.5669
8 1 -0.0432303 132.148 30.5669
ITEM: TIMESTEP
4200
ITEM: NUMBER OF CUBES
1
ITEM: CUBES
1 1 1 2 3 4 5 6 7 8
ITEM: TIMESTEP
4300
ITEM: NUMBER OF NODES
8
ITEM: BOX BOUNDS
-0.0432303 432.399
-0.0205235 132.148
0 30.5669
ITEM: NODES
1 1 -0.0432303 -0.0205235 0
2 1 432.399 -0.0205235 0
3 1 432.399 132.148 0
4 1 -0.0432303 132.148 0
5 1 -0.0432303 -0.0205235 30.5669
6 1 432.399 -0.0205235 30.5669
7 1 432.399 132.148 30.5669
8 1 -0.0432303 132.148 30.5669
ITEM: TIMESTEP
4300
ITEM: NUMBER OF CUBES
1
ITEM: CUBES
1 1 1 2 3 4 5 6 7 8
ITEM: TIMESTEP
4400
ITEM: NUMBER OF NODES
8
ITEM: BOX BOUNDS
-0.0432303 432.462
-0.0205235 132.336
0 30.5669
ITEM: NODES
1 1 -0.0432303 -0.0205235 0
2 1 432.462 -0.0205235 0
3 1 432.462 132.336 0
4 1 -0.0432303 132.336 0
5 1 -0.0432303 -0.0205235 30.5669
6 1 432.462 -0.0205235 30.5669
7 1 432.462 132.336 30.5669
8 1 -0.0432303 132.336 30.5669
ITEM: TIMESTEP
4400
ITEM: NUMBER OF CUBES
1
ITEM: CUBES
1 1 1 2 3 4 5 6 7 8
ITEM: TIMESTEP
4500
ITEM: NUMBER OF NODES
8
ITEM: BOX BOUNDS
-0.0432303 432.461
-0.0205235 132.508
0 30.5669
ITEM: NODES
1 1 -0.0432303 -0.0205235 0
2 1 432.461 -0.0205235 0
3 1 432.461 132.508 0
4 1 -0.0432303 132.508 0
5 1 -0.0432303 -0.0205235 30.5669
6 1 432.461 -0.0205235 30.5669
7 1 432.461 132.508 30.5669
8 1 -0.0432303 132.508 30.5669
ITEM: TIMESTEP
4500
ITEM: NUMBER OF CUBES
1
ITEM: CUBES
1 1 1 2 3 4 5 6 7 8
ITEM: TIMESTEP
4600
ITEM: NUMBER OF NODES
8
ITEM: BOX BOUNDS
-0.0432303 432.453
-0.0205235 132.619
0 30.5669
ITEM: NODES
1 1 -0.0432303 -0.0205235 0
2 1 432.453 -0.0205235 0
3 1 432.453 132.619 0
4 1 -0.0432303 132.619 0
5 1 -0.0432303 -0.0205235 30.5669
6 1 432.453 -0.0205235 30.5669
7 1 432.453 132.619 30.5669
8 1 -0.0432303 132.619 30.5669
ITEM: TIMESTEP
4600
ITEM: NUMBER OF CUBES
1
ITEM: CUBES
1 1 1 2 3 4 5 6 7 8
ITEM: TIMESTEP
4700
ITEM: NUMBER OF NODES
8
ITEM: BOX BOUNDS
-0.0432303 432.424
-0.0205235 132.73
0 30.5669
ITEM: NODES
1 1 -0.0432303 -0.0205235 0
2 1 432.424 -0.0205235 0
3 1 432.424 132.73 0
4 1 -0.0432303 132.73 0
5 1 -0.0432303 -0.0205235 30.5669
6 1 432.424 -0.0205235 30.5669
7 1 432.424 132.73 30.5669
8 1 -0.0432303 132.73 30.5669
ITEM: TIMESTEP
4700
ITEM: NUMBER OF CUBES
1
ITEM: CUBES
1 1 1 2 3 4 5 6 7 8
ITEM: TIMESTEP
4800
ITEM: NUMBER OF NODES
8
ITEM: BOX BOUNDS
-0.0432303 432.292
-0.0205235 132.811
0 30.5669
ITEM: NODES
1 1 -0.0432303 -0.0205235 0
2 1 432.292 -0.0205235 0
3 1 432.292 132.811 0
4 1 -0.0432303 132.811 0
5 1 -0.0432303 -0.0205235 30.5669
6 1 432.292 -0.0205235 30.5669
7 1 432.292 132.811 30.5669
8 1 -0.0432303 132.811 30.5669
ITEM: TIMESTEP
4800
ITEM: NUMBER OF CUBES
1
ITEM: CUBES
1 1 1 2 3 4 5 6 7 8
ITEM: TIMESTEP
4900
ITEM: NUMBER OF NODES
8
ITEM: BOX BOUNDS
-0.0432303 432.209
-0.0205235 132.852
0 30.5669
ITEM: NODES
1 1 -0.0432303 -0.0205235 0
2 1 432.209 -0.0205235 0
3 1 432.209 132.852 0
4 1 -0.0432303 132.852 0
5 1 -0.0432303 -0.0205235 30.5669
6 1 432.209 -0.0205235 30.5669
7 1 432.209 132.852 30.5669
8 1 -0.0432303 132.852 30.5669
ITEM: TIMESTEP
4900
ITEM: NUMBER OF CUBES
1
ITEM: CUBES
1 1 1 2 3 4 5 6 7 8
ITEM: TIMESTEP
5000
ITEM: NUMBER OF NODES
8
ITEM: BOX BOUNDS
-0.0432303 432.262
-0.0205235 132.856
0 30.5669
ITEM: NODES
1 1 -0.0432303 -0.0205235 0
2 1 432.262 -0.0205235 0
3 1 432.262 132.856 0
4 1 -0.0432303 132.856 0
5 1 -0.0432303 -0.0205235 30.5669
6 1 432.262 -0.0205235 30.5669
7 1 432.262 132.856 30.5669
8 1 -0.0432303 132.856 30.5669
ITEM: TIMESTEP
5000
ITEM: NUMBER OF CUBES
1
ITEM: CUBES
1 1 1 2 3 4 5 6 7 8
ITEM: TIMESTEP
5100
ITEM: NUMBER OF NODES
8
ITEM: BOX BOUNDS
-0.0432303 432.377
-0.0205235 132.924
0 30.5669
ITEM: NODES
1 1 -0.0432303 -0.0205235 0
2 1 432.377 -0.0205235 0
3 1 432.377 132.924 0
4 1 -0.0432303 132.924 0
5 1 -0.0432303 -0.0205235 30.5669
6 1 432.377 -0.0205235 30.5669
7 1 432.377 132.924 30.5669
8 1 -0.0432303 132.924 30.5669
ITEM: TIMESTEP
5100
ITEM: NUMBER OF CUBES
1
ITEM: CUBES
1 1 1 2 3 4 5 6 7 8
ITEM: TIMESTEP
5200
ITEM: NUMBER OF NODES
8
ITEM: BOX BOUNDS
-0.0432303 432.335
-0.0205235 132.881
0 30.5669
ITEM: NODES
1 1 -0.0432303 -0.0205235 0
2 1 432.335 -0.0205235 0
3 1 432.335 132.881 0
4 1 -0.0432303 132.881 0
5 1 -0.0432303 -0.0205235 30.5669
6 1 432.335 -0.0205235 30.5669
7 1 432.335 132.881 30.5669
8 1 -0.0432303 132.881 30.5669
ITEM: TIMESTEP
5200
ITEM: NUMBER OF CUBES
1
ITEM: CUBES
1 1 1 2 3 4 5 6 7 8
ITEM: TIMESTEP
5300
ITEM: NUMBER OF NODES
8
ITEM: BOX BOUNDS
-0.0432303 432.264
-0.0205235 132.886
0 30.5669
ITEM: NODES
1 1 -0.0432303 -0.0205235 0
2 1 432.264 -0.0205235 0
3 1 432.264 132.886 0
4 1 -0.0432303 132.886 0
5 1 -0.0432303 -0.0205235 30.5669
6 1 432.264 -0.0205235 30.5669
7 1 432.264 132.886 30.5669
8 1 -0.0432303 132.886 30.5669
ITEM: TIMESTEP
5300
ITEM: NUMBER OF CUBES
1
ITEM: CUBES
1 1 1 2 3 4 5 6 7 8
ITEM: TIMESTEP
5400
ITEM: NUMBER OF NODES
8
ITEM: BOX BOUNDS
-0.0432303 432.247
-0.0205235 132.83
0 30.5669
ITEM: NODES
1 1 -0.0432303 -0.0205235 0
2 1 432.247 -0.0205235 0
3 1 432.247 132.83 0
4 1 -0.0432303 132.83 0
5 1 -0.0432303 -0.0205235 30.5669
6 1 432.247 -0.0205235 30.5669
7 1 432.247 132.83 30.5669
8 1 -0.0432303 132.83 30.5669
ITEM: TIMESTEP
5400
ITEM: NUMBER OF CUBES
1
ITEM: CUBES
1 1 1 2 3 4 5 6 7 8
ITEM: TIMESTEP
5500
ITEM: NUMBER OF NODES
8
ITEM: BOX BOUNDS
-0.0432303 432.35
-0.0205235 132.821
0 30.5669
ITEM: NODES
1 1 -0.0432303 -0.0205235 0
2 1 432.35 -0.0205235 0
3 1 432.35 132.821 0
4 1 -0.0432303 132.821 0
5 1 -0.0432303 -0.0205235 30.5669
6 1 432.35 -0.0205235 30.5669
7 1 432.35 132.821 30.5669
8 1 -0.0432303 132.821 30.5669
ITEM: TIMESTEP
5500
ITEM: NUMBER OF CUBES
1
ITEM: CUBES
1 1 1 2 3 4 5 6 7 8
ITEM: TIMESTEP
5600
ITEM: NUMBER OF NODES
8
ITEM: BOX BOUNDS
-0.0432303 432.171
-0.0205235 132.782
0 30.5669
ITEM: NODES
1 1 -0.0432303 -0.0205235 0
2 1 432.171 -0.0205235 0
3 1 432.171 132.782 0
4 1 -0.0432303 132.782 0
5 1 -0.0432303 -0.0205235 30.5669
6 1 432.171 -0.0205235 30.5669
7 1 432.171 132.782 30.5669
8 1 -0.0432303 132.782 30.5669
ITEM: TIMESTEP
5600
ITEM: NUMBER OF CUBES
1
ITEM: CUBES
1 1 1 2 3 4 5 6 7 8
ITEM: TIMESTEP
5700
ITEM: NUMBER OF NODES
8
ITEM: BOX BOUNDS
-0.0432303 432.265
-0.0205235 132.736
0 30.5669
ITEM: NODES
1 1 -0.0432303 -0.0205235 0
2 1 432.265 -0.0205235 0
3 1 432.265 132.736 0
4 1 -0.0432303 132.736 0
5 1 -0.0432303 -0.0205235 30.5669
6 1 432.265 -0.0205235 30.5669
7 1 432.265 132.736 30.5669
8 1 -0.0432303 132.736 30.5669
ITEM: TIMESTEP
5700
ITEM: NUMBER OF CUBES
1
ITEM: CUBES
1 1 1 2 3 4 5 6 7 8
ITEM: TIMESTEP
5800
ITEM: NUMBER OF NODES
8
ITEM: BOX BOUNDS
-0.0432303 432.197
-0.0205235 132.77
0 30.5669
ITEM: NODES
1 1 -0.0432303 -0.0205235 0
2 1 432.197 -0.0205235 0
3 1 432.197 132.77 0
4 1 -0.0432303 132.77 0
5 1 -0.0432303 -0.0205235 30.5669
6 1 432.197 -0.0205235 30.5669
7 1 432.197 132.77 30.5669
8 1 -0.0432303 132.77 30.5669
ITEM: TIMESTEP
5800
ITEM: NUMBER OF CUBES
1
ITEM: CUBES
1 1 1 2 3 4 5 6 7 8
ITEM: TIMESTEP
5900
ITEM: NUMBER OF NODES
8
ITEM: BOX BOUNDS
-0.0432303 432.146
-0.0205235 132.759
0 30.5669
ITEM: NODES
1 1 -0.0432303 -0.0205235 0
2 1 432.146 -0.0205235 0
3 1 432.146 132.759 0
4 1 -0.0432303 132.759 0
5 1 -0.0432303 -0.0205235 30.5669
6 1 432.146 -0.0205235 30.5669
7 1 432.146 132.759 30.5669
8 1 -0.0432303 132.759 30.5669
ITEM: TIMESTEP
5900
ITEM: NUMBER OF CUBES
1
ITEM: CUBES
1 1 1 2 3 4 5 6 7 8
ITEM: TIMESTEP
6000
ITEM: NUMBER OF NODES
8
ITEM: BOX BOUNDS
-0.0432303 432.154
-0.0205235 132.837
0 30.5669
ITEM: NODES
1 1 -0.0432303 -0.0205235 0
2 1 432.154 -0.0205235 0
3 1 432.154 132.837 0
4 1 -0.0432303 132.837 0
5 1 -0.0432303 -0.0205235 30.5669
6 1 432.154 -0.0205235 30.5669
7 1 432.154 132.837 30.5669
8 1 -0.0432303 132.837 30.5669
ITEM: TIMESTEP
6000
ITEM: NUMBER OF CUBES
1
ITEM: CUBES
1 1 1 2 3 4 5 6 7 8
ITEM: TIMESTEP
6100
ITEM: NUMBER OF NODES
8
ITEM: BOX BOUNDS
-0.0432303 432.164
-0.0205235 132.923
0 30.5669
ITEM: NODES
1 1 -0.0432303 -0.0205235 0
2 1 432.164 -0.0205235 0
3 1 432.164 132.923 0
4 1 -0.0432303 132.923 0
5 1 -0.0432303 -0.0205235 30.5669
6 1 432.164 -0.0205235 30.5669
7 1 432.164 132.923 30.5669
8 1 -0.0432303 132.923 30.5669
ITEM: TIMESTEP
6100
ITEM: NUMBER OF CUBES
1
ITEM: CUBES
1 1 1 2 3 4 5 6 7 8
ITEM: TIMESTEP
6200
ITEM: NUMBER OF NODES
8
ITEM: BOX BOUNDS
-0.0432303 432.042
-0.0205235 132.987
0 30.5669
ITEM: NODES
1 1 -0.0432303 -0.0205235 0
2 1 432.042 -0.0205235 0
3 1 432.042 132.987 0
4 1 -0.0432303 132.987 0
5 1 -0.0432303 -0.0205235 30.5669
6 1 432.042 -0.0205235 30.5669
7 1 432.042 132.987 30.5669
8 1 -0.0432303 132.987 30.5669
ITEM: TIMESTEP
6200
ITEM: NUMBER OF CUBES
1
ITEM: CUBES
1 1 1 2 3 4 5 6 7 8
ITEM: TIMESTEP
6300
ITEM: NUMBER OF NODES
8
ITEM: BOX BOUNDS
-0.0432303 431.87
-0.0205235 133.054
0 30.5669
ITEM: NODES
1 1 -0.0432303 -0.0205235 0
2 1 431.87 -0.0205235 0
3 1 431.87 133.054 0
4 1 -0.0432303 133.054 0
5 1 -0.0432303 -0.0205235 30.5669
6 1 431.87 -0.0205235 30.5669
7 1 431.87 133.054 30.5669
8 1 -0.0432303 133.054 30.5669
ITEM: TIMESTEP
6300
ITEM: NUMBER OF CUBES
1
ITEM: CUBES
1 1 1 2 3 4 5 6 7 8
ITEM: TIMESTEP
6400
ITEM: NUMBER OF NODES
8
ITEM: BOX BOUNDS
-0.0432303 431.848
-0.0205235 133.049
0 30.5669
ITEM: NODES
1 1 -0.0432303 -0.0205235 0
2 1 431.848 -0.0205235 0
3 1 431.848 133.049 0
4 1 -0.0432303 133.049 0
5 1 -0.0432303 -0.0205235 30.5669
6 1 431.848 -0.0205235 30.5669
7 1 431.848 133.049 30.5669
8 1 -0.0432303 133.049 30.5669
ITEM: TIMESTEP
6400
ITEM: NUMBER OF CUBES
1
ITEM: CUBES
1 1 1 2 3 4 5 6 7 8
ITEM: TIMESTEP
6500
ITEM: NUMBER OF NODES
8
ITEM: BOX BOUNDS
-0.0432303 431.85
-0.0205235 133.079
0 30.5669
ITEM: NODES
1 1 -0.0432303 -0.0205235 0
2 1 431.85 -0.0205235 0
3 1 431.85 133.079 0
4 1 -0.0432303 133.079 0
5 1 -0.0432303 -0.0205235 30.5669
6 1 431.85 -0.0205235 30.5669
7 1 431.85 133.079 30.5669
8 1 -0.0432303 133.079 30.5669
ITEM: TIMESTEP
6500
ITEM: NUMBER OF CUBES
1
ITEM: CUBES
1 1 1 2 3 4 5 6 7 8
ITEM: TIMESTEP
6600
ITEM: NUMBER OF NODES
8
ITEM: BOX BOUNDS
-0.0432303 431.852
-0.0205235 133.086
0 30.5669
ITEM: NODES
1 1 -0.0432303 -0.0205235 0
2 1 431.852 -0.0205235 0
3 1 431.852 133.086 0
4 1 -0.0432303 133.086 0
5 1 -0.0432303 -0.0205235 30.5669
6 1 431.852 -0.0205235 30.5669
7 1 431.852 133.086 30.5669
8 1 -0.0432303 133.086 30.5669
ITEM: TIMESTEP
6600
ITEM: NUMBER OF CUBES
1
ITEM: CUBES
1 1 1 2 3 4 5 6 7 8
ITEM: TIMESTEP
6700
ITEM: NUMBER OF NODES
8
ITEM: BOX BOUNDS
-0.0432303 431.85
-0.0205235 133.208
0 30.5669
ITEM: NODES
1 1 -0.0432303 -0.0205235 0
2 1 431.85 -0.0205235 0
3 1 431.85 133.208 0
4 1 -0.0432303 133.208 0
5 1 -0.0432303 -0.0205235 30.5669
6 1 431.85 -0.0205235 30.5669
7 1 431.85 133.208 30.5669
8 1 -0.0432303 133.208 30.5669
ITEM: TIMESTEP
6700
ITEM: NUMBER OF CUBES
1
ITEM: CUBES
1 1 1 2 3 4 5 6 7 8
ITEM: TIMESTEP
6800
ITEM: NUMBER OF NODES
8
ITEM: BOX BOUNDS
-0.0432303 431.832
-0.0205235 133.145
0 30.5669
ITEM: NODES
1 1 -0.0432303 -0.0205235 0
2 1 431.832 -0.0205235 0
3 1 431.832 133.145 0
4 1 -0.0432303 133.145 0
5 1 -0.0432303 -0.0205235 30.5669
6 1 431.832 -0.0205235 30.5669
7 1 431.832 133.145 30.5669
8 1 -0.0432303 133.145 30.5669
ITEM: TIMESTEP
6800
ITEM: NUMBER OF CUBES
1
ITEM: CUBES
1 1 1 2 3 4 5 6 7 8
ITEM: TIMESTEP
6900
ITEM: NUMBER OF NODES
8
ITEM: BOX BOUNDS
-0.0432303 431.832
-0.0205235 133.181
0 30.5669
ITEM: NODES
1 1 -0.0432303 -0.0205235 0
2 1 431.832 -0.0205235 0
3 1 431.832 133.181 0
4 1 -0.0432303 133.181 0
5 1 -0.0432303 -0.0205235 30.5669
6 1 431.832 -0.0205235 30.5669
7 1 431.832 133.181 30.5669
8 1 -0.0432303 133.181 30.5669
ITEM: TIMESTEP
6900
ITEM: NUMBER OF CUBES
1
ITEM: CUBES
1 1 1 2 3 4 5 6 7 8
ITEM: TIMESTEP
7000
ITEM: NUMBER OF NODES
8
ITEM: BOX BOUNDS
-0.0432303 431.832
-0.0205235 133.051
0 30.5669
ITEM: NODES
1 1 -0.0432303 -0.0205235 0
2 1 431.832 -0.0205235 0
3 1 431.832 133.051 0
4 1 -0.0432303 133.051 0